CRYSTAL
PRIMVEC
   0.00000   4.05700   4.05700
   4.05700   0.00000   4.05700
   4.05700   4.05700   0.00000
PRIMCOORD
   14    1
   8     3.11010  -0.94690  -0.94690
   8    -1.08160   1.08160   1.08160
   8     1.08160   1.08160  -1.08160
   8     0.94690   3.11010   0.94690
   8    -1.08160  -1.08160  -1.08160
   8     0.94690   0.94690   3.11010
   8     1.08160  -1.08160   1.08160
   8     3.11010   0.94690   0.94690
  28     1.01425   1.01425  -3.04275
  28    -3.04275  -1.01425  -1.01425
  27    -1.01425  -1.01425  -3.04275
  27    -1.01425  -3.04275  -1.01425
  27     2.02850   2.02850   2.02850
  27     0.00000   0.00000   0.00000
BEGIN_BLOCK_DATAGRID_3D
charge_density_spin_1
BEGIN_DATAGRID_3D_isp_1
  35  35  35
   0.00000   0.00000   0.00000
   0.00000   4.05700   4.05700
   4.05700   0.00000   4.05700
   4.05700   4.05700   0.00000
  0.218491E-02  0.389577E-02  0.181738E-01  0.422219E-01  0.526421E-01  0.440528E-01  0.307786E-01  0.224591E-01
  0.189150E-01  0.171822E-01  0.154198E-01  0.131829E-01  0.107739E-01  0.864368E-02  0.705997E-02  0.605345E-02
  0.551029E-02  0.528553E-02  0.528553E-02  0.551028E-02  0.605345E-02  0.705997E-02  0.864368E-02  0.107739E-01
  0.131829E-01  0.154198E-01  0.171822E-01  0.189150E-01  0.224591E-01  0.307786E-01  0.440528E-01  0.526421E-01
  0.422219E-01  0.181738E-01  0.389577E-02  0.377485E-02  0.130244E-01  0.349213E-01  0.519493E-01  0.489828E-01
  0.345326E-01  0.221068E-01  0.154488E-01  0.124178E-01  0.107257E-01  0.932430E-02  0.798518E-02  0.680525E-02
  0.591512E-02  0.535700E-02  0.507697E-02  0.497202E-02  0.494933E-02  0.497202E-02  0.507697E-02  0.535700E-02
  0.591512E-02  0.680525E-02  0.798518E-02  0.932430E-02  0.107257E-01  0.124178E-01  0.154488E-01  0.221069E-01
  0.345326E-01  0.489828E-01  0.519493E-01  0.349213E-01  0.130244E-01  0.377486E-02  0.176118E-01  0.345792E-01
  0.508466E-01  0.513882E-01  0.382340E-01  0.238464E-01  0.147380E-01  0.102566E-01  0.811311E-02  0.689595E-02
  0.605386E-02  0.545062E-02  0.508483E-02  0.495424E-02  0.500516E-02  0.513694E-02  0.523896E-02  0.523896E-02
  0.513694E-02  0.500516E-02  0.495424E-02  0.508484E-02  0.545062E-02  0.605386E-02  0.689595E-02  0.811311E-02
  0.102566E-01  0.147380E-01  0.238464E-01  0.382340E-01  0.513882E-01  0.508466E-01  0.345792E-01  0.176118E-01
  0.115746E-01  0.412190E-01  0.513253E-01  0.511478E-01  0.396031E-01  0.253496E-01  0.151050E-01  0.954644E-02
  0.685497E-02  0.553678E-02  0.487018E-02  0.458594E-02  0.459874E-02  0.486502E-02  0.531214E-02  0.581410E-02
  0.621039E-02  0.636114E-02  0.621039E-02  0.581410E-02  0.531214E-02  0.486502E-02  0.459874E-02  0.458593E-02
  0.487018E-02  0.553678E-02  0.685497E-02  0.954644E-02  0.151050E-01  0.253496E-01  0.396031E-01  0.511478E-01
  0.513253E-01  0.412190E-01  0.319399E-01  0.319399E-01  0.516162E-01  0.483732E-01  0.379605E-01  0.252714E-01
  0.153487E-01  0.942144E-02  0.635518E-02  0.486901E-02  0.422805E-02  0.411352E-02  0.440757E-02  0.505658E-02
  0.598534E-02  0.704231E-02  0.798820E-02  0.855343E-02  0.855343E-02  0.798820E-02  0.704231E-02  0.598534E-02
  0.505658E-02  0.440757E-02  0.411352E-02  0.422805E-02  0.486901E-02  0.635518E-02  0.942144E-02  0.153487E-01
  0.252714E-01  0.379605E-01  0.483732E-01  0.516162E-01  0.491535E-01  0.472224E-01  0.491535E-01  0.433340E-01
  0.341162E-01  0.236501E-01  0.150346E-01  0.940608E-02  0.623010E-02  0.461000E-02  0.393251E-02  0.390014E-02
  0.440647E-02  0.542731E-02  0.692940E-02  0.877784E-02  0.106616E-01  0.121086E-01  0.126565E-01  0.121086E-01
  0.106616E-01  0.877784E-02  0.692940E-02  0.542730E-02  0.440647E-02  0.390014E-02  0.393251E-02  0.461000E-02
  0.623010E-02  0.940608E-02  0.150346E-01  0.236501E-01  0.341162E-01  0.433340E-01  0.486744E-01  0.504519E-01
  0.504519E-01  0.486744E-01  0.303656E-01  0.218693E-01  0.146266E-01  0.950789E-02  0.634858E-02  0.461174E-02
  0.385179E-02  0.382903E-02  0.447344E-02  0.582177E-02  0.793969E-02  0.108002E-01  0.141116E-01  0.171902E-01
  0.190908E-01  0.190908E-01  0.171902E-01  0.141116E-01  0.108002E-01  0.793969E-02  0.582177E-02  0.447344E-02
  0.382903E-02  0.385179E-02  0.461174E-02  0.634858E-02  0.950789E-02  0.146266E-01  0.218693E-01  0.303656E-01
  0.381977E-01  0.434753E-01  0.452892E-01  0.434753E-01  0.381977E-01  0.222253E-01  0.153263E-01  0.102102E-01
  0.684821E-02  0.487618E-02  0.394051E-02  0.383346E-02  0.451144E-02  0.607609E-02  0.873078E-02  0.126666E-01
  0.178066E-01  0.234326E-01  0.280226E-01  0.298205E-01  0.280226E-01  0.234326E-01  0.178066E-01  0.126666E-01
  0.873078E-02  0.607609E-02  0.451144E-02  0.383346E-02  0.394050E-02  0.487618E-02  0.684821E-02  0.102102E-01
  0.153263E-01  0.222253E-01  0.301398E-01  0.373471E-01  0.417032E-01  0.417032E-01  0.373471E-01  0.301398E-01
  0.187834E-01  0.123722E-01  0.811390E-02  0.555414E-02  0.424618E-02  0.391392E-02  0.448320E-02  0.608260E-02
  0.903822E-02  0.138145E-01  0.207643E-01  0.295340E-01  0.383329E-01  0.440503E-01  0.440503E-01  0.383329E-01
  0.295340E-01  0.207643E-01  0.138145E-01  0.903822E-02  0.608260E-02  0.448320E-02  0.391392E-02  0.424617E-02
  0.555414E-02  0.811391E-02  0.123722E-01  0.187834E-01  0.273626E-01  0.369697E-01  0.449388E-01  0.480872E-01
  0.449388E-01  0.369697E-01  0.273626E-01  0.171290E-01  0.107367E-01  0.692829E-02  0.490193E-02  0.413808E-02
  0.442558E-02  0.583995E-02  0.875062E-02  0.138316E-01  0.219254E-01  0.334359E-01  0.470654E-01  0.588471E-01
  0.636022E-01  0.588471E-01  0.470654E-01  0.334359E-01  0.219254E-01  0.138316E-01  0.875062E-02  0.583995E-02
  0.442558E-02  0.413808E-02  0.490193E-02  0.692829E-02  0.107367E-01  0.171290E-01  0.268726E-01  0.397369E-01
  0.531153E-01  0.620020E-01  0.620020E-01  0.531153E-01  0.397369E-01  0.268726E-01  0.154337E-01  0.937349E-02
  0.610283E-02  0.462358E-02  0.443594E-02  0.545417E-02  0.797365E-02  0.127120E-01  0.208141E-01  0.334680E-01
  0.505614E-01  0.686378E-01  0.807560E-01  0.807560E-01  0.686378E-01  0.505614E-01  0.334680E-01  0.208141E-01
  0.127119E-01  0.797365E-02  0.545416E-02  0.443595E-02  0.462358E-02  0.610283E-02  0.937349E-02  0.154337E-01
  0.256967E-01  0.411548E-01  0.603014E-01  0.773212E-01  0.842750E-01  0.773212E-01  0.603014E-01  0.411548E-01
  0.256967E-01  0.132454E-01  0.805349E-02  0.550403E-02  0.463731E-02  0.508965E-02  0.696989E-02  0.108601E-01
  0.178890E-01  0.296202E-01  0.471094E-01  0.686135E-01  0.876378E-01  0.953920E-01  0.876378E-01  0.686135E-01
  0.471093E-01  0.296202E-01  0.178890E-01  0.108601E-01  0.696988E-02  0.508965E-02  0.463730E-02  0.550403E-02
  0.805348E-02  0.132454E-01  0.227653E-01  0.386149E-01  0.611234E-01  0.856544E-01  0.102303E+00  0.102303E+00
  0.856544E-01  0.611235E-01  0.386149E-01  0.227653E-01  0.108604E-01  0.687638E-02  0.513542E-02  0.490388E-02
  0.602718E-02  0.883900E-02  0.142038E-01  0.235481E-01  0.384210E-01  0.588151E-01  0.805622E-01  0.951781E-01
  0.951781E-01  0.805622E-01  0.588151E-01  0.384210E-01  0.235481E-01  0.142038E-01  0.883900E-02  0.602717E-02
  0.490388E-02  0.513542E-02  0.687638E-02  0.108604E-01  0.186109E-01  0.324431E-01  0.542284E-01  0.819624E-01
  0.106839E+00  0.116995E+00  0.106839E+00  0.819624E-01  0.542284E-01  0.324431E-01  0.186109E-01  0.873204E-02
  0.597934E-02  0.500029E-02  0.535418E-02  0.709781E-02  0.107467E-01  0.173088E-01  0.281417E-01  0.440726E-01
  0.633969E-01  0.803080E-01  0.871592E-01  0.803080E-01  0.633969E-01  0.440725E-01  0.281417E-01  0.173088E-01
  0.107467E-01  0.709781E-02  0.535418E-02  0.500028E-02  0.597934E-02  0.873204E-02  0.143692E-01  0.248556E-01
  0.425605E-01  0.679195E-01  0.955907E-01  0.114306E+00  0.114306E+00  0.955907E-01  0.679196E-01  0.425605E-01
  0.248556E-01  0.143692E-01  0.713743E-02  0.541191E-02  0.504921E-02  0.586348E-02  0.805991E-02  0.122135E-01
  0.192171E-01  0.299058E-01  0.439703E-01  0.584917E-01  0.680644E-01  0.680644E-01  0.584917E-01  0.439703E-01
  0.299058E-01  0.192171E-01  0.122135E-01  0.805991E-02  0.586348E-02  0.504921E-02  0.541191E-02  0.713743E-02
  0.109048E-01  0.180590E-01  0.305713E-01  0.499468E-01  0.743418E-01  0.961273E-01  0.105018E+00  0.961273E-01
  0.743418E-01  0.499468E-01  0.305713E-01  0.180590E-01  0.109048E-01  0.611730E-02  0.512551E-02  0.518343E-02
  0.627017E-02  0.863981E-02  0.127714E-01  0.192068E-01  0.280652E-01  0.381981E-01  0.467096E-01  0.500893E-01
  0.467096E-01  0.381981E-01  0.280652E-01  0.192068E-01  0.127714E-01  0.863981E-02  0.627017E-02  0.518344E-02
  0.512551E-02  0.611730E-02  0.851567E-02  0.131193E-01  0.212253E-01  0.342457E-01  0.522107E-01  0.714423E-01
  0.843970E-01  0.843970E-01  0.714423E-01  0.522107E-01  0.342457E-01  0.212253E-01  0.131193E-01  0.851568E-02
  0.556435E-02  0.501947E-02  0.529196E-02  0.643213E-02  0.865019E-02  0.122248E-01  0.172930E-01  0.234608E-01
  0.294308E-01  0.332097E-01  0.332097E-01  0.294308E-01  0.234608E-01  0.172930E-01  0.122248E-01  0.865019E-02
  0.643213E-02  0.529196E-02  0.501947E-02  0.556436E-02  0.709351E-02  0.100544E-01  0.152149E-01  0.235238E-01
  0.354555E-01  0.496642E-01  0.619767E-01  0.669495E-01  0.619767E-01  0.496642E-01  0.354555E-01  0.235238E-01
  0.152149E-01  0.100545E-01  0.709351E-02  0.533614E-02  0.500072E-02  0.530085E-02  0.629147E-02  0.809128E-02
  0.107767E-01  0.142116E-01  0.178548E-01  0.207408E-01  0.218517E-01  0.207408E-01  0.178547E-01  0.142116E-01
  0.107767E-01  0.809128E-02  0.629146E-02  0.530085E-02  0.500072E-02  0.533614E-02  0.638551E-02  0.841733E-02
  0.119153E-01  0.174811E-01  0.254599E-01  0.352575E-01  0.447695E-01  0.507919E-01  0.507919E-01  0.447695E-01
  0.352575E-01  0.254599E-01  0.174811E-01  0.119153E-01  0.841733E-02  0.638551E-02  0.533842E-02  0.503050E-02
  0.520803E-02  0.590325E-02  0.714953E-02  0.889413E-02  0.109080E-01  0.127483E-01  0.138657E-01  0.138657E-01
  0.127483E-01  0.109080E-01  0.889413E-02  0.714952E-02  0.590325E-02  0.520803E-02  0.503050E-02  0.533843E-02
  0.617615E-02  0.773656E-02  0.104061E-01  0.146849E-01  0.208105E-01  0.281512E-01  0.350579E-01  0.397612E-01
  0.413786E-01  0.397612E-01  0.350579E-01  0.281512E-01  0.208105E-01  0.146849E-01  0.104061E-01  0.773656E-02
  0.617615E-02  0.556830E-02  0.514267E-02  0.508364E-02  0.540695E-02  0.609579E-02  0.704920E-02  0.805881E-02
  0.884062E-02  0.913646E-02  0.884062E-02  0.805881E-02  0.704919E-02  0.609578E-02  0.540695E-02  0.508364E-02
  0.514266E-02  0.556831E-02  0.638189E-02  0.773126E-02  0.998301E-02  0.137137E-01  0.193310E-01  0.261994E-01
  0.321997E-01  0.352952E-01  0.358834E-01  0.358834E-01  0.352952E-01  0.321997E-01  0.261994E-01  0.193310E-01
  0.137137E-01  0.998301E-02  0.773126E-02  0.638190E-02  0.611409E-02  0.542591E-02  0.503603E-02  0.496262E-02
  0.516945E-02  0.555116E-02  0.595000E-02  0.620233E-02  0.620233E-02  0.595000E-02  0.555116E-02  0.516946E-02
  0.496262E-02  0.503602E-02  0.542591E-02  0.611409E-02  0.707954E-02  0.839833E-02  0.103849E-01  0.136933E-01
  0.190789E-01  0.263982E-01  0.334151E-01  0.368428E-01  0.362295E-01  0.351827E-01  0.362295E-01  0.368429E-01
  0.334151E-01  0.263982E-01  0.190789E-01  0.136933E-01  0.103849E-01  0.839833E-02  0.707954E-02  0.711227E-02
  0.597814E-02  0.516380E-02  0.469605E-02  0.452217E-02  0.453407E-02  0.460750E-02  0.464441E-02  0.460750E-02
  0.453407E-02  0.452217E-02  0.469605E-02  0.516379E-02  0.597814E-02  0.711227E-02  0.847617E-02  0.100102E-01
  0.118693E-01  0.146287E-01  0.192531E-01  0.263162E-01  0.344644E-01  0.401878E-01  0.411508E-01  0.395921E-01
  0.395921E-01  0.411508E-01  0.401878E-01  0.344644E-01  0.263162E-01  0.192531E-01  0.146287E-01  0.118693E-01
  0.100102E-01  0.847617E-02  0.866593E-02  0.684899E-02  0.552024E-02  0.468120E-02  0.423072E-02  0.403267E-02
  0.396783E-02  0.396783E-02  0.403267E-02  0.423071E-02  0.468120E-02  0.552024E-02  0.684899E-02  0.866593E-02
  0.108141E-01  0.130240E-01  0.151282E-01  0.173943E-01  0.206879E-01  0.260007E-01  0.331548E-01  0.399849E-01
  0.440883E-01  0.454164E-01  0.455817E-01  0.454164E-01  0.440883E-01  0.399849E-01  0.331548E-01  0.260007E-01
  0.206879E-01  0.173943E-01  0.151282E-01  0.130240E-01  0.108141E-01  0.107374E-01  0.799712E-02  0.611143E-02
  0.496606E-02  0.435315E-02  0.407555E-02  0.399879E-02  0.407555E-02  0.435315E-02  0.496606E-02  0.611143E-02
  0.799712E-02  0.107374E-01  0.141938E-01  0.178660E-01  0.210556E-01  0.233905E-01  0.253233E-01  0.279311E-01
  0.318312E-01  0.363644E-01  0.407347E-01  0.452281E-01  0.488991E-01  0.488991E-01  0.452281E-01  0.407347E-01
  0.363644E-01  0.318312E-01  0.279311E-01  0.253233E-01  0.233905E-01  0.210556E-01  0.178660E-01  0.141938E-01
  0.130677E-01  0.930323E-02  0.694881E-02  0.564515E-02  0.501628E-02  0.477765E-02  0.477765E-02  0.501628E-02
  0.564515E-02  0.694881E-02  0.930323E-02  0.130677E-01  0.183263E-01  0.245056E-01  0.302403E-01  0.340072E-01
  0.352996E-01  0.350840E-01  0.347453E-01  0.347954E-01  0.356436E-01  0.391383E-01  0.454091E-01  0.489273E-01
  0.454091E-01  0.391383E-01  0.356436E-01  0.347954E-01  0.347453E-01  0.350840E-01  0.352996E-01  0.340072E-01
  0.302403E-01  0.245056E-01  0.183263E-01  0.152392E-01  0.106930E-01  0.818587E-02  0.700399E-02  0.655505E-02
  0.645098E-02  0.655504E-02  0.700399E-02  0.818587E-02  0.106930E-01  0.152392E-01  0.223910E-01  0.319072E-01
  0.419794E-01  0.494978E-01  0.519798E-01  0.495561E-01  0.446032E-01  0.394173E-01  0.353803E-01  0.346813E-01
  0.393047E-01  0.454379E-01  0.454379E-01  0.393047E-01  0.346813E-01  0.353803E-01  0.394173E-01  0.446032E-01
  0.495561E-01  0.519798E-01  0.494978E-01  0.419794E-01  0.319072E-01  0.223910E-01  0.169954E-01  0.124228E-01
  0.103984E-01  0.978893E-02  0.972759E-02  0.972759E-02  0.978893E-02  0.103984E-01  0.124228E-01  0.169954E-01
  0.253216E-01  0.379647E-01  0.533941E-01  0.671713E-01  0.739441E-01  0.713813E-01  0.619995E-01  0.506785E-01
  0.410783E-01  0.354890E-01  0.359135E-01  0.410764E-01  0.442933E-01  0.410764E-01  0.359135E-01  0.354890E-01
  0.410783E-01  0.506785E-01  0.619995E-01  0.713813E-01  0.739441E-01  0.671713E-01  0.533941E-01  0.379647E-01
  0.253216E-01  0.188130E-01  0.155658E-01  0.150220E-01  0.155150E-01  0.158310E-01  0.155150E-01  0.150220E-01
  0.155658E-01  0.188130E-01  0.266326E-01  0.405753E-01  0.602193E-01  0.809937E-01  0.949895E-01  0.960750E-01
  0.846301E-01  0.671062E-01  0.507296E-01  0.395326E-01  0.350291E-01  0.366818E-01  0.402374E-01  0.402374E-01
  0.366818E-01  0.350291E-01  0.395326E-01  0.507296E-01  0.671062E-01  0.846301E-01  0.960750E-01  0.949895E-01
  0.809937E-01  0.602193E-01  0.405753E-01  0.266326E-01  0.225314E-01  0.224103E-01  0.243353E-01  0.259795E-01
  0.259795E-01  0.243353E-01  0.224103E-01  0.225314E-01  0.273835E-01  0.394235E-01  0.596253E-01  0.847715E-01
  0.106186E+00  0.114258E+00  0.105437E+00  0.848300E-01  0.621578E-01  0.447137E-01  0.348849E-01  0.320268E-01
  0.333391E-01  0.345365E-01  0.333391E-01  0.320268E-01  0.348849E-01  0.447137E-01  0.621578E-01  0.848300E-01
  0.105437E+00  0.114258E+00  0.106186E+00  0.847715E-01  0.596253E-01  0.394235E-01  0.273835E-01  0.310651E-01
  0.350265E-01  0.388925E-01  0.404162E-01  0.388925E-01  0.350265E-01  0.310651E-01  0.305211E-01  0.370217E-01
  0.528544E-01  0.768332E-01  0.101884E+00  0.117033E+00  0.114836E+00  0.967562E-01  0.718224E-01  0.497539E-01
  0.351760E-01  0.280148E-01  0.260862E-01  0.263575E-01  0.263575E-01  0.260862E-01  0.280148E-01  0.351760E-01
  0.497539E-01  0.718224E-01  0.967562E-01  0.114836E+00  0.117033E+00  0.101884E+00  0.768332E-01  0.528544E-01
  0.370217E-01  0.305211E-01  0.444766E-01  0.495182E-01  0.520444E-01  0.520444E-01  0.495182E-01  0.444766E-01
  0.390417E-01  0.378019E-01  0.450857E-01  0.619637E-01  0.842327E-01  0.102512E+00  0.107397E+00  0.962603E-01
  0.748061E-01  0.523814E-01  0.354309E-01  0.253578E-01  0.207029E-01  0.192541E-01  0.190456E-01  0.192541E-01
  0.207029E-01  0.253578E-01  0.354309E-01  0.523814E-01  0.748061E-01  0.962603E-01  0.107397E+00  0.102512E+00
  0.842327E-01  0.619637E-01  0.450857E-01  0.378019E-01  0.390417E-01  0.530041E-01  0.522982E-01  0.513586E-01
  0.522982E-01  0.530041E-01  0.500223E-01  0.444062E-01  0.422112E-01  0.483657E-01  0.622376E-01  0.776633E-01
  0.861688E-01  0.825326E-01  0.683353E-01  0.501171E-01  0.342340E-01  0.234332E-01  0.173791E-01  0.146006E-01
  0.136544E-01  0.136544E-01  0.146006E-01  0.173791E-01  0.234332E-01  0.342340E-01  0.501171E-01  0.683353E-01
  0.825326E-01  0.861688E-01  0.776633E-01  0.622376E-01  0.483657E-01  0.422112E-01  0.444062E-01  0.500223E-01
  0.423623E-01  0.350243E-01  0.350243E-01  0.423623E-01  0.507570E-01  0.518825E-01  0.462045E-01  0.422191E-01
  0.453032E-01  0.534838E-01  0.607184E-01  0.615336E-01  0.545205E-01  0.426739E-01  0.305420E-01  0.211299E-01
  0.151106E-01  0.118270E-01  0.103378E-01  0.992935E-02  0.103378E-01  0.118270E-01  0.151106E-01  0.211299E-01
  0.305420E-01  0.426739E-01  0.545205E-01  0.615336E-01  0.607184E-01  0.534838E-01  0.453032E-01  0.422191E-01
  0.462045E-01  0.518825E-01  0.507570E-01  0.181373E-01  0.130388E-01  0.181373E-01  0.332287E-01  0.488507E-01
  0.517693E-01  0.442706E-01  0.378105E-01  0.373157E-01  0.400489E-01  0.414198E-01  0.387844E-01  0.324899E-01
  0.248025E-01  0.179576E-01  0.130130E-01  0.996389E-02  0.834564E-02  0.767805E-02  0.767805E-02  0.834564E-02
  0.996389E-02  0.130130E-01  0.179576E-01  0.248025E-01  0.324899E-01  0.387844E-01  0.414198E-01  0.400489E-01
  0.373157E-01  0.378105E-01  0.442706E-01  0.517693E-01  0.488507E-01  0.332287E-01  0.384279E-02  0.384279E-02
  0.121770E-01  0.331854E-01  0.505597E-01  0.497221E-01  0.388097E-01  0.304990E-01  0.276094E-01  0.270445E-01
  0.257858E-01  0.227677E-01  0.185454E-01  0.142703E-01  0.108036E-01  0.842856E-02  0.702334E-02  0.632740E-02
  0.612277E-02  0.632739E-02  0.702334E-02  0.842855E-02  0.108036E-01  0.142703E-01  0.185454E-01  0.227677E-01
  0.257858E-01  0.270445E-01  0.276094E-01  0.304990E-01  0.388097E-01  0.497221E-01  0.505597E-01  0.331854E-01
  0.121770E-01  0.377485E-02  0.130244E-01  0.349213E-01  0.519493E-01  0.489828E-01  0.345326E-01  0.221068E-01
  0.154488E-01  0.124178E-01  0.107257E-01  0.932430E-02  0.798517E-02  0.680526E-02  0.591513E-02  0.535700E-02
  0.507697E-02  0.497202E-02  0.494933E-02  0.497202E-02  0.507697E-02  0.535701E-02  0.591513E-02  0.680526E-02
  0.798517E-02  0.932430E-02  0.107257E-01  0.124178E-01  0.154488E-01  0.221069E-01  0.345326E-01  0.489828E-01
  0.519493E-01  0.349213E-01  0.130244E-01  0.377485E-02  0.126562E-01  0.304063E-01  0.496970E-01  0.527732E-01
  0.400700E-01  0.250716E-01  0.154050E-01  0.106479E-01  0.837989E-02  0.707920E-02  0.615197E-02  0.545259E-02
  0.498095E-02  0.473975E-02  0.468464E-02  0.472994E-02  0.478257E-02  0.478257E-02  0.472994E-02  0.468464E-02
  0.473974E-02  0.498095E-02  0.545259E-02  0.615197E-02  0.707920E-02  0.837990E-02  0.106479E-01  0.154050E-01
  0.250716E-01  0.400700E-01  0.527732E-01  0.496970E-01  0.304063E-01  0.126562E-01  0.702492E-02  0.339871E-01
  0.492640E-01  0.536463E-01  0.433266E-01  0.280242E-01  0.165289E-01  0.102625E-01  0.725671E-02  0.577603E-02
  0.497611E-02  0.454241E-02  0.437440E-02  0.442664E-02  0.463869E-02  0.491601E-02  0.514589E-02  0.523469E-02
  0.514589E-02  0.491601E-02  0.463869E-02  0.442663E-02  0.437440E-02  0.454241E-02  0.497611E-02  0.577603E-02
  0.725671E-02  0.102625E-01  0.165289E-01  0.280242E-01  0.433265E-01  0.536463E-01  0.492640E-01  0.339871E-01
  0.221412E-01  0.221412E-01  0.508058E-01  0.521977E-01  0.431480E-01  0.291667E-01  0.174894E-01  0.104499E-01
  0.686224E-02  0.512942E-02  0.431682E-02  0.401604E-02  0.406734E-02  0.439487E-02  0.492274E-02  0.553673E-02
  0.608352E-02  0.640718E-02  0.640719E-02  0.608352E-02  0.553673E-02  0.492274E-02  0.439487E-02  0.406735E-02
  0.401604E-02  0.431682E-02  0.512942E-02  0.686224E-02  0.104499E-01  0.174894E-01  0.291667E-01  0.431480E-01
  0.521977E-01  0.508058E-01  0.432559E-01  0.392241E-01  0.432559E-01  0.481040E-01  0.396300E-01  0.278554E-01
  0.174467E-01  0.105796E-01  0.678165E-02  0.486838E-02  0.400101E-02  0.376331E-02  0.398067E-02  0.457598E-02
  0.547932E-02  0.656822E-02  0.764011E-02  0.843766E-02  0.873406E-02  0.843766E-02  0.764011E-02  0.656822E-02
  0.547932E-02  0.457598E-02  0.398067E-02  0.376331E-02  0.400101E-02  0.486838E-02  0.678164E-02  0.105796E-01
  0.174467E-01  0.278554E-01  0.396300E-01  0.481040E-01  0.506007E-01  0.497483E-01  0.497483E-01  0.506007E-01
  0.340348E-01  0.248174E-01  0.164215E-01  0.104154E-01  0.677554E-02  0.480377E-02  0.388447E-02  0.366942E-02
  0.400914E-02  0.485594E-02  0.618056E-02  0.789149E-02  0.976185E-02  0.114093E-01  0.123881E-01  0.123881E-01
  0.114093E-01  0.976185E-02  0.789149E-02  0.618057E-02  0.485594E-02  0.400914E-02  0.366942E-02  0.388448E-02
  0.480377E-02  0.677555E-02  0.104154E-01  0.164215E-01  0.248174E-01  0.340348E-01  0.414223E-01  0.454343E-01
  0.465552E-01  0.454343E-01  0.414223E-01  0.218566E-01  0.152748E-01  0.102086E-01  0.684780E-02  0.486883E-02
  0.388703E-02  0.365046E-02  0.405465E-02  0.510049E-02  0.683356E-02  0.925354E-02  0.121863E-01  0.151655E-01
  0.174548E-01  0.183222E-01  0.174548E-01  0.151655E-01  0.121863E-01  0.925354E-02  0.683355E-02  0.510050E-02
  0.405465E-02  0.365046E-02  0.388703E-02  0.486883E-02  0.684780E-02  0.102086E-01  0.152748E-01  0.218566E-01
  0.288652E-01  0.346307E-01  0.378016E-01  0.378016E-01  0.346307E-01  0.288652E-01  0.153218E-01  0.105910E-01
  0.724225E-02  0.513384E-02  0.400973E-02  0.367618E-02  0.405804E-02  0.519890E-02  0.723118E-02  0.102989E-01
  0.143943E-01  0.191138E-01  0.234868E-01  0.261792E-01  0.261792E-01  0.234868E-01  0.191138E-01  0.143943E-01
  0.102989E-01  0.723118E-02  0.519890E-02  0.405804E-02  0.367618E-02  0.400974E-02  0.513384E-02  0.724225E-02
  0.105910E-01  0.153218E-01  0.211520E-01  0.271129E-01  0.316790E-01  0.334008E-01  0.316790E-01  0.271129E-01
  0.211519E-01  0.123623E-01  0.837157E-02  0.578906E-02  0.433433E-02  0.377785E-02  0.401944E-02  0.510768E-02
  0.723581E-02  0.106975E-01  0.157377E-01  0.222246E-01  0.292184E-01  0.348492E-01  0.370376E-01  0.348492E-01
  0.292184E-01  0.222246E-01  0.157377E-01  0.106975E-01  0.723580E-02  0.510768E-02  0.401944E-02  0.377785E-02
  0.433433E-02  0.578906E-02  0.837157E-02  0.123623E-01  0.178782E-01  0.244814E-01  0.308128E-01  0.348046E-01
  0.348046E-01  0.308129E-01  0.244814E-01  0.178782E-01  0.107226E-01  0.710355E-02  0.500528E-02  0.404011E-02
  0.399831E-02  0.486979E-02  0.684661E-02  0.103121E-01  0.157482E-01  0.234279E-01  0.328106E-01  0.419469E-01
  0.477611E-01  0.477611E-01  0.419469E-01  0.328106E-01  0.234279E-01  0.157482E-01  0.103121E-01  0.684661E-02
  0.486979E-02  0.399832E-02  0.404011E-02  0.500528E-02  0.710355E-02  0.107226E-01  0.163011E-01  0.239330E-01
  0.326596E-01  0.400175E-01  0.429502E-01  0.400175E-01  0.326596E-01  0.239330E-01  0.163011E-01  0.935845E-02
  0.619444E-02  0.457793E-02  0.409325E-02  0.459598E-02  0.620018E-02  0.927713E-02  0.144233E-01  0.222552E-01
  0.328317E-01  0.447410E-01  0.546452E-01  0.585614E-01  0.546452E-01  0.447410E-01  0.328317E-01  0.222552E-01
  0.144233E-01  0.927713E-02  0.620017E-02  0.459598E-02  0.409324E-02  0.457793E-02  0.619444E-02  0.935845E-02
  0.147244E-01  0.229073E-01  0.336767E-01  0.448350E-01  0.522279E-01  0.522279E-01  0.448350E-01  0.336767E-01
  0.229073E-01  0.147244E-01  0.804010E-02  0.550084E-02  0.440983E-02  0.442108E-02  0.550371E-02  0.792155E-02
  0.122275E-01  0.191678E-01  0.292775E-01  0.419906E-01  0.546580E-01  0.628369E-01  0.628369E-01  0.546580E-01
  0.419906E-01  0.292775E-01  0.191678E-01  0.122275E-01  0.792155E-02  0.550371E-02  0.442108E-02  0.440984E-02
  0.550084E-02  0.804010E-02  0.127204E-01  0.204709E-01  0.318355E-01  0.455931E-01  0.576454E-01  0.625384E-01
  0.576454E-01  0.455930E-01  0.318355E-01  0.204709E-01  0.127204E-01  0.686597E-02  0.502699E-02  0.445983E-02
  0.495111E-02  0.660151E-02  0.980884E-02  0.152323E-01  0.235726E-01  0.349359E-01  0.478139E-01  0.585640E-01
  0.628214E-01  0.585640E-01  0.478139E-01  0.349359E-01  0.235726E-01  0.152323E-01  0.980884E-02  0.660150E-02
  0.495112E-02  0.445983E-02  0.502699E-02  0.686597E-02  0.105525E-01  0.170323E-01  0.272947E-01  0.412494E-01
  0.560414E-01  0.659618E-01  0.659618E-01  0.560414E-01  0.412494E-01  0.272948E-01  0.170323E-01  0.105525E-01
  0.597176E-02  0.478086E-02  0.467143E-02  0.557165E-02  0.768815E-02  0.114798E-01  0.175531E-01  0.262980E-01
  0.371461E-01  0.478182E-01  0.546467E-01  0.546467E-01  0.478182E-01  0.371461E-01  0.262980E-01  0.175531E-01
  0.114798E-01  0.768815E-02  0.557165E-02  0.467143E-02  0.478087E-02  0.597176E-02  0.863434E-02  0.135240E-01
  0.216526E-01  0.336285E-01  0.481760E-01  0.609425E-01  0.661283E-01  0.609425E-01  0.481760E-01  0.336285E-01
  0.216526E-01  0.135240E-01  0.863434E-02  0.540616E-02  0.472263E-02  0.495262E-02  0.613028E-02  0.850582E-02
  0.124868E-01  0.184540E-01  0.263301E-01  0.349842E-01  0.420351E-01  0.447906E-01  0.420351E-01  0.349843E-01
  0.263301E-01  0.184540E-01  0.124868E-01  0.850582E-02  0.613028E-02  0.495262E-02  0.472263E-02  0.540617E-02
  0.722057E-02  0.106782E-01  0.165709E-01  0.256640E-01  0.377638E-01  0.503971E-01  0.588016E-01  0.588016E-01
  0.503971E-01  0.377638E-01  0.256641E-01  0.165709E-01  0.106782E-01  0.722057E-02  0.512054E-02  0.476920E-02
  0.519128E-02  0.647012E-02  0.882535E-02  0.125156E-01  0.176181E-01  0.236700E-01  0.293934E-01  0.329590E-01
  0.329590E-01  0.293934E-01  0.236700E-01  0.176181E-01  0.125156E-01  0.882535E-02  0.647013E-02  0.519128E-02
  0.476920E-02  0.512053E-02  0.634478E-02  0.876174E-02  0.129173E-01  0.194442E-01  0.285632E-01  0.391653E-01
  0.482017E-01  0.518222E-01  0.482017E-01  0.391653E-01  0.285632E-01  0.194442E-01  0.129173E-01  0.876175E-02
  0.634477E-02  0.501469E-02  0.482792E-02  0.529259E-02  0.648822E-02  0.855144E-02  0.115617E-01  0.153544E-01
  0.193252E-01  0.224383E-01  0.236294E-01  0.224383E-01  0.193252E-01  0.153544E-01  0.115617E-01  0.855144E-02
  0.648822E-02  0.529260E-02  0.482791E-02  0.501470E-02  0.589552E-02  0.768050E-02  0.107609E-01  0.156150E-01
  0.224824E-01  0.308026E-01  0.387863E-01  0.438007E-01  0.438007E-01  0.387863E-01  0.308026E-01  0.224824E-01
  0.156150E-01  0.107609E-01  0.768049E-02  0.589552E-02  0.499610E-02  0.483752E-02  0.521777E-02  0.618156E-02
  0.777212E-02  0.993150E-02  0.123899E-01  0.146199E-01  0.159685E-01  0.159685E-01  0.146199E-01  0.123899E-01
  0.993150E-02  0.777212E-02  0.618156E-02  0.521777E-02  0.483752E-02  0.499610E-02  0.572290E-02  0.718716E-02
  0.973823E-02  0.138296E-01  0.196640E-01  0.266242E-01  0.331422E-01  0.375593E-01  0.390727E-01  0.375593E-01
  0.331422E-01  0.266242E-01  0.196640E-01  0.138296E-01  0.973823E-02  0.718716E-02  0.572290E-02  0.502625E-02
  0.479567E-02  0.500078E-02  0.564817E-02  0.671194E-02  0.806867E-02  0.945896E-02  0.105209E-01  0.109207E-01
  0.105209E-01  0.945896E-02  0.806867E-02  0.671194E-02  0.564817E-02  0.500078E-02  0.479567E-02  0.502625E-02
  0.572581E-02  0.705317E-02  0.938314E-02  0.132961E-01  0.191712E-01  0.262468E-01  0.321828E-01  0.348643E-01
  0.350137E-01  0.350137E-01  0.348643E-01  0.321828E-01  0.262468E-01  0.191712E-01  0.132961E-01  0.938315E-02
  0.705316E-02  0.572582E-02  0.513886E-02  0.475951E-02  0.473313E-02  0.504274E-02  0.562821E-02  0.635711E-02
  0.703099E-02  0.743794E-02  0.743794E-02  0.703099E-02  0.635710E-02  0.562821E-02  0.504275E-02  0.473313E-02
  0.475951E-02  0.513886E-02  0.590160E-02  0.718602E-02  0.937839E-02  0.132213E-01  0.195115E-01  0.278266E-01
  0.350479E-01  0.369780E-01  0.337800E-01  0.313977E-01  0.337800E-01  0.369780E-01  0.350479E-01  0.278266E-01
  0.195115E-01  0.132213E-01  0.937839E-02  0.718602E-02  0.590160E-02  0.542235E-02  0.481916E-02  0.452618E-02
  0.451893E-02  0.472558E-02  0.502765E-02  0.528627E-02  0.538731E-02  0.528627E-02  0.502765E-02  0.472558E-02
  0.451892E-02  0.452618E-02  0.481917E-02  0.542235E-02  0.634602E-02  0.767276E-02  0.972270E-02  0.132680E-01
  0.194731E-01  0.287320E-01  0.383152E-01  0.422918E-01  0.377244E-01  0.307858E-01  0.307858E-01  0.377244E-01
  0.422918E-01  0.383152E-01  0.287320E-01  0.194731E-01  0.132680E-01  0.972271E-02  0.767276E-02  0.634602E-02
  0.597448E-02  0.505800E-02  0.447450E-02  0.419280E-02  0.412995E-02  0.417649E-02  0.423051E-02  0.423051E-02
  0.417650E-02  0.412995E-02  0.419279E-02  0.447450E-02  0.505800E-02  0.597448E-02  0.720388E-02  0.873522E-02
  0.107283E-01  0.137798E-01  0.190757E-01  0.276655E-01  0.381486E-01  0.450918E-01  0.433410E-01  0.356164E-01
  0.312997E-01  0.356164E-01  0.433410E-01  0.450918E-01  0.381486E-01  0.276655E-01  0.190757E-01  0.137798E-01
  0.107283E-01  0.873522E-02  0.720388E-02  0.684522E-02  0.552027E-02  0.464072E-02  0.414385E-02  0.391567E-02
  0.383750E-02  0.382208E-02  0.383750E-02  0.391567E-02  0.414385E-02  0.464072E-02  0.552027E-02  0.684522E-02
  0.858352E-02  0.106131E-01  0.128510E-01  0.155430E-01  0.195473E-01  0.260150E-01  0.346575E-01  0.418348E-01
  0.430477E-01  0.390681E-01  0.353181E-01  0.353181E-01  0.390681E-01  0.430477E-01  0.418348E-01  0.346575E-01
  0.260151E-01  0.195473E-01  0.155430E-01  0.128511E-01  0.106131E-01  0.858351E-02  0.799412E-02  0.620783E-02
  0.507589E-02  0.445410E-02  0.416618E-02  0.406399E-02  0.406399E-02  0.416618E-02  0.445410E-02  0.507589E-02
  0.620782E-02  0.799412E-02  0.104548E-01  0.133956E-01  0.164417E-01  0.193306E-01  0.223591E-01  0.264106E-01
  0.317751E-01  0.363529E-01  0.370495E-01  0.351672E-01  0.351930E-01  0.361708E-01  0.351930E-01  0.351672E-01